 Gaussian 16, Revision C.01,
 Gaussian 16:  ES64L-G16RevC.01  3-Jul-2019

 -------------------------------------------------------------------
 #p irc=(calcfc,recalc=1,maxpoints=100,stepsize=5) b3lyp/6-31+g(d,p)
 -------------------------------------------------------------------

 -------
 IRC sn2
 -------
 Symbolic Z-matrix:
 Charge = -1 Multiplicity = 1

 SCF Done:  E(RB3LYP) =  -639.320568633     A.U. after   13 cycles
 SCF Done:  E(RB3LYP) =  -639.320615112     A.U. after   10 cycles
 SCF Done:  E(RB3LYP) =  -639.320747762     A.U. after   10 cycles
 SCF Done:  E(RB3LYP) =  -639.320955193     A.U. after   10 cycles
 SCF Done:  E(RB3LYP) =  -639.321225104     A.U. after   10 cycles
 SCF Done:  E(RB3LYP) =  -639.321544218     A.U. after   10 cycles
 SCF Done:  E(RB3LYP) =  -639.321898350     A.U. after   10 cycles
 SCF Done:  E(RB3LYP) =  -639.322272533     A.U. after   10 cycles
 SCF Done:  E(RB3LYP) =  -639.322651232     A.U. after   10 cycles
 SCF Done:  E(RB3LYP) =  -639.323018722     A.U. after   10 cycles
 SCF Done:  E(RB3LYP) =  -639.368131059     A.U. after    8 cycles
 SCF Done:  E(RB3LYP) =  -639.368295641     A.U. after    8 cycles
 SCF Done:  E(RB3LYP) =  -639.368415017     A.U. after    8 cycles
 SCF Done:  E(RB3LYP) =  -639.368495831     A.U. after    8 cycles
 SCF Done:  E(RB3LYP) =  -639.368551854     A.U. after    8 cycles
 SCF Done:  E(RB3LYP) =  -639.368595931     A.U. after    8 cycles
 SCF Done:  E(RB3LYP) =  -639.368633236     A.U. after    8 cycles
 SCF Done:  E(RB3LYP) =  -639.368665097     A.U. after    8 cycles
 SCF Done:  E(RB3LYP) =  -639.368692330     A.U. after    8 cycles
 SCF Done:  E(RB3LYP) =  -639.368715639     A.U. after    8 cycles

                          Input orientation:
 ---------------------------------------------------------------------
 Center     Atomic      Atomic             Coordinates (Angstroms)
 Number     Number       Type             X           Y           Z
 ---------------------------------------------------------------------
      1          6           0        1.191371   -0.178773    0.054897
      2         17           0       -2.280687   -0.229940    0.011840
      3          1           0        0.679725   -0.696944   -0.756901
      4          1           0        0.850809   -0.596992    1.003863
      5          9           0        2.590403   -0.493538   -0.055622
      6          6           0        0.991241    1.315779   -0.013752
      7          1           0       -0.087639    1.496980    0.049279
      8          1           0        1.502704    1.823289    0.812966
      9          1           0        1.368771    1.717474   -0.961395
 ---------------------------------------------------------------------

 Alpha  occ. eigenvalues -- -101.25039 -24.55809 -10.12302 -10.05144  -9.16386
 Alpha  occ. eigenvalues --   -6.92167  -6.92164  -6.92161  -1.04626  -0.62958
 Alpha  occ. eigenvalues --   -0.50188  -0.49342  -0.35659  -0.35591  -0.31328
 Alpha  occ. eigenvalues --   -0.26711  -0.25600  -0.21130  -0.20309  -0.04863
 Alpha  occ. eigenvalues --   -0.04791  -0.04769
 Alpha virt. eigenvalues --    0.12923   0.14108   0.16892   0.17972   0.19502
 Alpha virt. eigenvalues --    0.19898   0.20470   0.23104   0.24533   0.25990
 Alpha virt. eigenvalues --    0.26361   0.28250   0.28422   0.31969   0.35439

 Mulliken charges:
               1
     1  C    0.005632
     2  Cl  -0.960497
     3  H    0.170664
     4  H    0.149954
     5  F   -0.378094
     6  C   -0.454671
     7  H    0.223232
     8  H    0.119556
     9  H    0.124223
 Sum of Mulliken charges =  -1.00000

 Dipole moment (field-independent basis, Debye):
    X=              7.3561    Y=              1.5133    Z=              0.0905  Tot=              7.5107
 Quadrupole moment (field-independent basis, Debye-Ang):
   XX=            -72.0420   YY=            -37.6150   ZZ=            -36.2146
   XY=             -1.0846   XZ=              0.5097   YZ=             -0.0207

  Exact polarizability:       0.000       0.000       0.000       0.000       0.000       0.000
 Approx polarizability:      66.252       2.204      55.854      -0.097      -0.238      52.806

 Normal termination of Gaussian 16 at Thu Nov 19 10:33:11 2020.
