 Gaussian 16, Revision C.01,
 Gaussian 16:  ES64L-G16RevC.01  3-Jul-2019

 -------------------------------------------------------------
 #P B3LYP/6-31+G(d,p) opt=(ts,calcfc,noeigentest) freq=noraman
 -------------------------------------------------------------

 ----------------------------------------------
 opt=(ts,calcfc,noeigenest) freq=noraman ts_sn2
 ----------------------------------------------
 Symbolic Z-matrix:
 Charge = -1 Multiplicity = 1

 SCF Done:  E(RB3LYP) =  -639.320504608     A.U. after   13 cycles
 SCF Done:  E(RB3LYP) =  -639.320568602     A.U. after   10 cycles
 SCF Done:  E(RB3LYP) =  -639.320568633     A.U. after    8 cycles
 Optimization completed.
    -- Stationary point found.
 Normal termination of Gaussian 16 at Wed Oct 28 18:09:40 2020.

 ----------------------------------------------------------------------
 #P Geom=AllCheck Guess=TCheck SCRF=Check GenChk RB3LYP/6-31+G(d,p) Fre
 q
 ----------------------------------------------------------------------

 Structure from the checkpoint file:  "/home/b/buttard/SN2-E2/Gau-27047.chk"
 ----------------------------------------------
 opt=(ts,calcfc,noeigenest) freq=noraman ts_sn2
 ----------------------------------------------
 Charge = -1 Multiplicity = 1

                         Standard orientation:
 ---------------------------------------------------------------------
 Center     Atomic      Atomic             Coordinates (Angstroms)
 Number     Number       Type             X           Y           Z
 ---------------------------------------------------------------------
      1          6           0        0.359212   -0.182874    0.000004
      2         17           0       -1.835896   -0.249537   -0.000001
      3          1           0        0.465960   -0.740774   -0.913509
      4          1           0        0.465958   -0.740768    0.913521
      5          9           0        2.477752   -0.655761   -0.000002
      6          6           0        0.621070    1.294870   -0.000000
      7          1           0        0.193857    1.772569    0.887308
      8          1           0        1.709110    1.408428    0.000017
      9          1           0        0.193890    1.772560   -0.887329
 ---------------------------------------------------------------------

 SCF Done:  E(RB3LYP) =  -639.320568633     A.U. after    1 cycles

 The electronic state is 1-A.
 Alpha  occ. eigenvalues -- -101.33322 -24.36912 -10.09902 -10.03971  -9.24825
 Alpha  occ. eigenvalues --   -7.00912  -7.00421  -7.00417  -0.80867  -0.63432
 Alpha  occ. eigenvalues --   -0.57679  -0.46183  -0.31626  -0.27374  -0.25404
 Alpha  occ. eigenvalues --   -0.22250  -0.16243  -0.12020  -0.11932  -0.08536
 Alpha  occ. eigenvalues --   -0.08500  -0.08099
 Alpha virt. eigenvalues --    0.13045   0.14066   0.16306   0.18119   0.18750
 Alpha virt. eigenvalues --    0.21181   0.21567   0.22086   0.23302   0.23597
 Alpha virt. eigenvalues --    0.25819   0.25995   0.29299   0.32280   0.37759

 Mulliken charges:
               1
     1  C   -0.128088
     2  Cl  -0.527475
     3  H    0.213240
     4  H    0.213239
     5  F   -0.771633
     6  C   -0.478352
     7  H    0.133067
     8  H    0.212934
     9  H    0.133067
 Sum of Mulliken charges =  -1.00000

 Dipole moment (field-independent basis, Debye):
    X=             -2.8788    Y=              2.6685    Z=              0.0000  Tot=              3.9253
 Quadrupole moment (field-independent basis, Debye-Ang):
   XX=            -69.2694   YY=            -37.7235   ZZ=            -34.9583
   XY=              4.9835   XZ=              0.0000   YZ=             -0.0000

  Exact polarizability:      90.454      -1.045      46.538       0.000      -0.000      39.780
 Approx polarizability:     124.185      -3.336      55.767       0.000      -0.000      51.344

 ******    1 imaginary frequencies (negative Signs) ******

                      1                      2                      3
                      A                      A                      A
 Frequencies --   -343.4867               164.5091               199.7451
 Red. masses --      8.6529                 1.2391                 7.0166
 Frc consts  --      0.6015                 0.0198                 0.1649
 IR Inten    --    758.6363                 9.0310                17.7810

                      4                      5                      6
                      A                      A                      A
 Frequencies --    236.8653               246.2978               303.6779
 Red. masses --      2.0368                 9.9302                 3.0657
 Frc consts  --      0.0673                 0.3549                 0.1666
 IR Inten    --      7.6794                13.3018                 4.5335

                      7                      8                      9
                      A                      A                      A
 Frequencies --    804.1626               920.6796               955.3477
 Red. masses --      1.0658                 1.0311                 1.4132
 Frc consts  --      0.4061                 0.5149                 0.7599
 IR Inten    --      1.6990                 0.4264                45.8528

                     10                     11                     12
                      A                      A                      A
 Frequencies --   1061.7512              1093.0025              1217.9011
 Red. masses --      1.6186                 1.4539                 1.4311
 Frc consts  --      1.0751                 1.0234                 1.2507
 IR Inten    --     31.6560                67.9328                 0.5806

                     13                     14                     15
                      A                      A                      A
 Frequencies --   1362.9980              1463.0851              1488.9751
 Red. masses --      1.2333                 1.1391                 1.0920
 Frc consts  --      1.3500                 1.4367                 1.4264
 IR Inten    --     12.7855                 2.4986                 0.0833

                     16                     17                     18
                      A                      A                      A
 Frequencies --   1495.9937              3038.8062              3109.2873
 Red. masses --      1.0403                 1.0333                 1.1026
 Frc consts  --      1.3717                 5.6220                 6.2806
 IR Inten    --      6.6487                32.7127                36.8457

                     19                     20                     21
                      A                      A                      A
 Frequencies --   3125.6960              3262.4020              3375.9852
 Red. masses --      1.1024                 1.0538                 1.1233
 Frc consts  --      6.3456                 6.6085                 7.5433
 IR Inten    --      4.9000                 2.8116                 0.0001

 - Thermochemistry -
 -------------------
 Temperature   298.150 Kelvin.  Pressure   1.00000 Atm.
 Atom     1 has atomic number  6 and mass  12.00000

 Molecular mass:    83.00638 amu.
 Principal axes and moments of inertia in atomic units:
                           1         2         3
     Eigenvalues --   154.56530 883.498881014.71605
           X            0.99984   0.01805   0.00000
           Y           -0.01805   0.99984  -0.00000
           Z           -0.00000   0.00000   1.00000
 This molecule is an asymmetric top.
 Rotational symmetry number  1.
 Rotational temperatures (Kelvin)      0.56037     0.09804     0.08536
 Rotational constants (GHZ):          11.67624     2.04272     1.77857
    1 imaginary frequencies ignored.
 Zero-point vibrational energy     173022.9 (Joules/Mol)
                                   41.35346 (Kcal/Mol)
 Warning -- explicit consideration of   5 degrees of freedom as
           vibrations may cause significant error
 Vibrational temperatures:    236.69   287.39   340.80   354.37   436.92
          (Kelvin)           1157.01  1324.65  1374.53  1527.62  1572.59
                             1752.29  1961.05  2105.05  2142.30  2152.40
                             4372.16  4473.57  4497.18  4693.87  4857.29

 Zero-point correction=                           0.065901 (Hartree/Particle)
 Thermal correction to Energy=                    0.071591
 Thermal correction to Enthalpy=                  0.072535
 Thermal correction to Gibbs Free Energy=         0.036480
 Sum of electronic and zero-point Energies=           -639.254668
 Sum of electronic and thermal Energies=              -639.248977
 Sum of electronic and thermal Enthalpies=            -639.248033
 Sum of electronic and thermal Free Energies=         -639.284088

                     E (Thermal)             CV                S
                      KCal/Mol        Cal/Mol-Kelvin    Cal/Mol-Kelvin
 Total                   44.924             17.606             75.884
 Electronic               0.000              0.000              0.000
 Translational            0.889              2.981             39.163
 Rotational               0.889              2.981             26.430
 Vibrational             43.147             11.645             10.291
 Vibration     1          0.623              1.886              2.497
 Vibration     2          0.638              1.840              2.135
 Vibration     3          0.656              1.784              1.826
 Vibration     4          0.661              1.769              1.757
 Vibration     5          0.695              1.667              1.397

 Optimization completed.
    -- Stationary point found.
 Normal termination of Gaussian 16 at Wed Oct 28 18:10:40 2020.
