 Gaussian 16, Revision B.01,
 Gaussian 16:  ES64L-G16RevB.01 20-Dec-2017

 ----------------------------------------------------------------------
 # td=(50-50,nstates=5) cam-b3lyp/aug-cc-pvdz empiricaldispersion=gd3bj
  formcheck
 ----------------------------------------------------------------------

 ------------------------------
 bf3-tropone-camb3lyp-augccpvdz
 ------------------------------
 Symbolic Z-matrix:
 Charge =  0 Multiplicity = 1

                         Standard orientation:
 ---------------------------------------------------------------------
 Center     Atomic      Atomic             Coordinates (Angstroms)
 Number     Number       Type             X           Y           Z
 ---------------------------------------------------------------------
      1          6           0       -3.394327    0.259814   -0.000004
      2          6           0       -3.009535   -1.052938    0.000024
      3          6           0       -1.692271   -1.574091    0.000051
      4          6           0       -2.558807    1.402729    0.000025
      5          6           0       -0.478696   -0.942427   -0.000049
      6          6           0       -1.195497    1.494433   -0.000060
      7          1           0       -4.464650    0.456697   -0.000034
      8          1           0       -3.806768   -1.793898    0.000009
      9          1           0       -1.635178   -2.661809    0.000097
     10          1           0       -3.084109    2.356823    0.000122
     11          1           0        0.404026   -1.573640   -0.000244
     12          1           0       -0.761196    2.492447   -0.000029
     13          6           0       -0.197457    0.464859   -0.000174
     14          8           0        0.997482    0.896682   -0.000337
     15          5           0        2.270498   -0.022557    0.000004
     16          9           0        2.186348   -0.798797   -1.148305
     17          9           0        2.186281   -0.797585    1.149147
     18          9           0        3.313490    0.857320   -0.000411
 ---------------------------------------------------------------------

 SCF Done:  E(RCAM-B3LYP) =  -669.955615219     A.U. after   14 cycles

 Excitation energies and oscillator strengths:

 Excited State   1:      Triplet-A      2.2649 eV  547.41 nm  f=0.0000  <S**2>=2.000
      42 -> 46        -0.17080
      44 -> 45         0.68660
      44 <- 45         0.15798
 This state for optimization and/or second-order correction.
 Total Energy, E(TD-HF/TD-DFT) =  -669.872381193
 Copying the excited state density for this state as the 1-particle RhoCI density.

 Excited State   2:      Triplet-A      3.0527 eV  406.15 nm  f=0.0000  <S**2>=2.000
      44 -> 46         0.69876

 Excited State   3:      Triplet-A      3.9031 eV  317.66 nm  f=0.0000  <S**2>=2.000
      41 -> 45         0.20337
      42 -> 45         0.64624
      44 -> 46         0.10945

 Excited State   4:      Singlet-A      4.2559 eV  291.32 nm  f=0.0669  <S**2>=0.000
      42 -> 46        -0.13683
      44 -> 45         0.69121

 Excited State   5:      Triplet-A      4.4927 eV  275.97 nm  f=0.0000  <S**2>=2.000
      35 -> 45         0.13402
      41 -> 46         0.19223
      42 -> 46         0.62944
      44 -> 45         0.16108

 Excited State   6:      Singlet-A      4.5566 eV  272.10 nm  f=0.1350  <S**2>=0.000
      42 -> 45         0.30375
      44 -> 46         0.62714

 Excited State   7:      Triplet-A      4.9208 eV  251.96 nm  f=0.0000  <S**2>=2.000
      36 -> 46        -0.11325
      40 -> 46        -0.10033
      43 -> 46         0.65910

 Excited State   8:      Singlet-A      5.2406 eV  236.59 nm  f=0.0000  <S**2>=0.000
      36 -> 46        -0.10146
      43 -> 45         0.13988
      43 -> 46         0.66156

 Excited State   9:      Singlet-A      5.4531 eV  227.37 nm  f=0.0007  <S**2>=0.000
      36 -> 45        -0.15899
      43 -> 45         0.65969
      43 -> 46        -0.13737

 Excited State  10:      Singlet-A      6.1296 eV  202.27 nm  f=0.2577  <S**2>=0.000
      35 -> 45        -0.13345
      39 -> 45        -0.11079
      41 -> 46         0.12382
      42 -> 45         0.27995
      42 -> 46         0.56514
      44 -> 45         0.11804
      44 -> 46        -0.14551

 The electronic state is 1-A.
 Alpha  occ. eigenvalues --  -24.72364 -24.72360 -24.71454 -19.26543 -10.40355
 Alpha  occ. eigenvalues --  -10.34273 -10.33964 -10.33787 -10.33715 -10.33094
 Alpha  occ. eigenvalues --  -10.32467  -6.92293  -1.26267  -1.21629  -1.21439
 Alpha  occ. eigenvalues --   -1.18061  -0.99003  -0.92534  -0.90441  -0.80147
 Alpha  occ. eigenvalues --   -0.78746  -0.69175  -0.66600  -0.65536  -0.61528
 Alpha  occ. eigenvalues --   -0.58636  -0.57755  -0.56323  -0.55395  -0.53793
 Alpha  occ. eigenvalues --   -0.53062  -0.53034  -0.49206  -0.47802  -0.47296
 Alpha  occ. eigenvalues --   -0.46943  -0.45215  -0.44815  -0.42904  -0.42814
 Alpha  occ. eigenvalues --   -0.41207  -0.40385  -0.40191  -0.34655
 Alpha virt. eigenvalues --   -0.08918  -0.07589  -0.01413   0.00388   0.01681
 Alpha virt. eigenvalues --    0.03432   0.04053   0.04588   0.05524   0.06240
 Alpha virt. eigenvalues --    0.06874   0.07081   0.07929   0.08211   0.08672

 Mulliken charges:
               1
     1  C    0.779109
     2  C    0.716965
     3  C    0.738714
     4  C    0.849422
     5  C    1.293523
     6  C    0.733074
     7  H   -0.782616
     8  H   -0.805948
     9  H   -0.801469
    10  H   -0.788012
    11  H   -1.161186
    12  H   -0.931087
    13  C    1.111363
    14  O   -0.742535
    15  B    1.263208
    16  F   -0.471254
    17  F   -0.471252
    18  F   -0.530021
 Sum of Mulliken charges =  -0.00000

 Dipole moment (field-independent basis, Debye):
    X=            -11.4913    Y=              0.0310    Z=             -0.0007  Tot=             11.4914
 Quadrupole moment (field-independent basis, Debye-Ang):
   XX=            -68.6016   YY=            -59.1114   ZZ=            -72.9413
   XY=             -0.9289   XZ=             -0.0009   YZ=              0.0003

 Normal termination of Gaussian 16 at Sat Nov 25 14:39:18 2023.
