 Gaussian 16, Revision C.01,
 Gaussian 16:  ES64L-G16RevC.01  3-Jul-2019

 ----------------------------------------------------------------------
 #p opt=modredundant wb97xd/6-31+g(d,p) scrf=(smd,solvent=dichlorometha
 ne)
 ----------------------------------------------------------------------

 -------------------
 1u_class_min_conf-9
 -------------------
 Symbolic Z-matrix:
 Charge =  0 Multiplicity = 1

 SCF Done:  E(RwB97XD) =  -1157.62286571     A.U. after   16 cycles
 SCF Done:  E(RwB97XD) =  -1157.63654066     A.U. after   14 cycles
 SCF Done:  E(RwB97XD) =  -1157.63876025     A.U. after   13 cycles
 SCF Done:  E(RwB97XD) =  -1157.63861635     A.U. after   14 cycles
 SCF Done:  E(RwB97XD) =  -1157.64006909     A.U. after   14 cycles
 SCF Done:  E(RwB97XD) =  -1157.64014251     A.U. after   13 cycles
 SCF Done:  E(RwB97XD) =  -1157.64022471     A.U. after   14 cycles
 SCF Done:  E(RwB97XD) =  -1157.64062169     A.U. after   12 cycles
 SCF Done:  E(RwB97XD) =  -1157.64077249     A.U. after   14 cycles
 SCF Done:  E(RwB97XD) =  -1157.64087912     A.U. after   13 cycles
 SCF Done:  E(RwB97XD) =  -1157.64102466     A.U. after   13 cycles
 SCF Done:  E(RwB97XD) =  -1157.64103781     A.U. after   12 cycles
 SCF Done:  E(RwB97XD) =  -1157.64103859     A.U. after   11 cycles
 SCF Done:  E(RwB97XD) =  -1157.64103812     A.U. after   11 cycles
 SCF Done:  E(RwB97XD) =  -1157.64103789     A.U. after   10 cycles
 SCF Done:  E(RwB97XD) =  -1157.64103856     A.U. after   11 cycles
 SCF Done:  E(RwB97XD) =  -1157.64103765     A.U. after   11 cycles
 SCF Done:  E(RwB97XD) =  -1157.64103755     A.U. after    9 cycles
 SCF Done:  E(RwB97XD) =  -1157.64103852     A.U. after   11 cycles
 SCF Done:  E(RwB97XD) =  -1157.64103747     A.U. after   11 cycles
 Optimization completed.
    -- Stationary point found.

                         Standard orientation:
 ---------------------------------------------------------------------
 Center     Atomic      Atomic             Coordinates (Angstroms)
 Number     Number       Type             X           Y           Z
 ---------------------------------------------------------------------
      1          6           0        1.971924   -0.081990    0.857685
      2          6           0       -0.401488    0.887752    0.970860
      3          6           0        1.084950    1.155468    0.808370
      4          1           0       -0.765655    0.903099    1.994286
      5          1           0        1.413901    1.707484    1.697761
      6          6           0       -1.227154    0.631641   -0.047971
      7          1           0       -0.822950    0.585391   -1.057826
      8          6           0       -2.670697    0.353559    0.060662
      9          6           0       -3.312219   -0.277942   -1.013668
     10          6           0       -3.430594    0.692087    1.190346
     11          6           0       -4.670024   -0.583670   -0.955649
     12          1           0       -2.734962   -0.540445   -1.896446
     13          6           0       -4.787521    0.389670    1.247355
     14          1           0       -2.965188    1.207918    2.025146
     15          6           0       -5.412298   -0.252040    0.176465
     16          1           0       -5.147278   -1.079782   -1.795436
     17          1           0       -5.362128    0.661959    2.127822
     18          1           0       -6.471863   -0.484995    0.223290
     19          6           0        1.732781   -0.969509    2.035008
     20          1           0        2.206061   -1.942783    1.907118
     21          1           0        2.210443   -0.475130    2.889774
     22          1           0        0.672927   -1.098344    2.249277
     23          9           0        1.372579   -0.988154   -0.467069
     24          5           0        0.785271   -2.434155   -0.634039
     25          9           0        0.333024   -2.419492   -1.930302
     26          9           0       -0.211912   -2.569209    0.298440
     27          9           0        1.844657   -3.286494   -0.426907
     28          6           0        3.398839    0.126341    0.428049
     29          6           0        4.331632   -1.072312    0.551972
     30          1           0        3.754143    0.947020    1.067963
     31          1           0        3.401169    0.511105   -0.593867
     32          1           0        5.316016   -0.799177    0.162898
     33          1           0        4.459414   -1.388366    1.590784
     34          1           0        3.962868   -1.922337   -0.027520
     35          6           0        1.324606    2.073125   -0.384052
     36          8           0        1.438677    1.722546   -1.538202
     37          8           0        1.339131    3.346691    0.009686
     38          6           0        1.445420    4.333946   -1.029491
     39          1           0        1.426131    5.295028   -0.518190
     40          1           0        2.383429    4.211670   -1.574975
     41          1           0        0.600615    4.250955   -1.716647
 ---------------------------------------------------------------------

 The electronic state is 1-A.
 Alpha  occ. eigenvalues --  -24.85671 -24.81423 -24.81375 -24.81318 -19.33751
 Alpha  occ. eigenvalues --  -19.28023 -10.44968 -10.43590 -10.34851 -10.34847
 Alpha  occ. eigenvalues --  -10.31789 -10.31762 -10.31688 -10.31371 -10.30858
 Alpha  occ. eigenvalues --  -10.30654 -10.30589 -10.30537 -10.30503 -10.30450
 Alpha  occ. eigenvalues --  -10.28978  -6.99513  -1.33443  -1.29341  -1.27422
 Alpha  occ. eigenvalues --   -1.27385  -1.22848  -1.13594  -0.97584  -0.96425
 Alpha  occ. eigenvalues --   -0.91196  -0.87616  -0.84921  -0.84776  -0.83126
 Alpha  occ. eigenvalues --   -0.80402  -0.75883  -0.71365  -0.70325  -0.69656
 Alpha  occ. eigenvalues --   -0.67867  -0.65659  -0.64712  -0.63312  -0.61480
 Alpha  occ. eigenvalues --   -0.61302  -0.60951  -0.59611  -0.59102  -0.58803
 Alpha  occ. eigenvalues --   -0.57334  -0.56123  -0.55671  -0.54905  -0.53513
 Alpha  occ. eigenvalues --   -0.53041  -0.52546  -0.51650  -0.51213  -0.50723
 Alpha  occ. eigenvalues --   -0.50383  -0.50266  -0.49611  -0.48800  -0.48539
 Alpha  occ. eigenvalues --   -0.48385  -0.47822  -0.47477  -0.47217  -0.47113
 Alpha  occ. eigenvalues --   -0.46469  -0.46340  -0.44854  -0.44462  -0.43570
 Alpha  occ. eigenvalues --   -0.43301  -0.42267  -0.41928  -0.39893  -0.38613
 Alpha  occ. eigenvalues --   -0.37125  -0.33296  -0.30428
 Alpha virt. eigenvalues --    0.01913   0.02751   0.05480   0.06100   0.07069
 Alpha virt. eigenvalues --    0.07384   0.07583   0.07747   0.08873   0.09096
 Alpha virt. eigenvalues --    0.09359   0.09565   0.09882   0.10453   0.10688

 Mulliken charges:
               1
     1  C   -0.261581
     2  C    0.063094
     3  C   -0.110190
     4  H    0.183239
     5  H    0.245028
     6  C   -0.098602
     7  H    0.169618
     8  C    0.105343
     9  C   -0.231148
    10  C    0.071818
    11  C   -0.199940
    12  H    0.181869
    13  C   -0.435639
    14  H    0.173872
    15  C   -0.216486
    16  H    0.188016
    17  H    0.186202
    18  H    0.185865
    19  C   -0.378686
    20  H    0.226301
    21  H    0.228306
    22  H    0.220664
    23  F   -0.406879
    24  B    1.522001
    25  F   -0.547482
    26  F   -0.514424
    27  F   -0.558337
    28  C    0.096358
    29  C   -0.721983
    30  H    0.218960
    31  H    0.215343
    32  H    0.181877
    33  H    0.177472
    34  H    0.193116
    35  C   -0.153065
    36  O   -0.400371
    37  O   -0.158218
    38  C   -0.207256
    39  H    0.186062
    40  H    0.189368
    41  H    0.190494
 Sum of Mulliken charges =  -0.00000

 Dipole moment (field-independent basis, Debye):
    X=              3.2350    Y=              8.6811    Z=              6.6368  Tot=             11.3962
 Quadrupole moment (field-independent basis, Debye-Ang):
   XX=           -104.6749   YY=           -134.2761   ZZ=           -122.3122
   XY=             10.6522   XZ=              9.6798   YZ=             -4.3143

 Normal termination of Gaussian 16 at Mon Sep  5 06:59:28 2022.
