 Gaussian 16, Revision B.01,
 Gaussian 16:  ES64L-G16RevB.01 20-Dec-2017

 ----------------------
 # opt pbe0/aug-cc-pvdz
 ----------------------

 ---------------------
 tropone-pbe0-auccpvdz
 ---------------------
 Symbolic Z-matrix:
 Charge =  0 Multiplicity = 1

 SCF Done:  E(RPBE0DH) =  -344.880348093     A.U. after   15 cycles
 E2(PBE0DH) =    -0.1851854025D+00 E(PBE0DH) =    -0.34506553349572D+03
 SCF Done:  E(RPBE0DH) =  -344.936141817     A.U. after   14 cycles
 E2(PBE0DH) =    -0.1803994218D+00 E(PBE0DH) =    -0.34511654123886D+03
 SCF Done:  E(RPBE0DH) =  -344.958897828     A.U. after   14 cycles
 E2(PBE0DH) =    -0.1762512087D+00 E(PBE0DH) =    -0.34513514903661D+03
 SCF Done:  E(RPBE0DH) =  -344.965531298     A.U. after   14 cycles
 E2(PBE0DH) =    -0.1782760439D+00 E(PBE0DH) =    -0.34514380734220D+03
 SCF Done:  E(RPBE0DH) =  -344.969722775     A.U. after   13 cycles
 E2(PBE0DH) =    -0.1774446028D+00 E(PBE0DH) =    -0.34514716737767D+03
 SCF Done:  E(RPBE0DH) =  -344.970908567     A.U. after   14 cycles
 E2(PBE0DH) =    -0.1772125798D+00 E(PBE0DH) =    -0.34514812114698D+03
 SCF Done:  E(RPBE0DH) =  -344.971456077     A.U. after   14 cycles
 E2(PBE0DH) =    -0.1772765822D+00 E(PBE0DH) =    -0.34514873265899D+03
 SCF Done:  E(RPBE0DH) =  -344.971754222     A.U. after   14 cycles
 E2(PBE0DH) =    -0.1773083833D+00 E(PBE0DH) =    -0.34514906260521D+03
 SCF Done:  E(RPBE0DH) =  -344.971960925     A.U. after   14 cycles
 E2(PBE0DH) =    -0.1773399136D+00 E(PBE0DH) =    -0.34514930083890D+03
 SCF Done:  E(RPBE0DH) =  -344.972118243     A.U. after   14 cycles
 E2(PBE0DH) =    -0.1772954705D+00 E(PBE0DH) =    -0.34514941371360D+03
 SCF Done:  E(RPBE0DH) =  -344.972149917     A.U. after   10 cycles
 E2(PBE0DH) =    -0.1772702297D+00 E(PBE0DH) =    -0.34514942014661D+03
 SCF Done:  E(RPBE0DH) =  -344.972159626     A.U. after   10 cycles
 E2(PBE0DH) =    -0.1772612871D+00 E(PBE0DH) =    -0.34514942091286D+03
 Optimization completed.
    -- Stationary point found.

                         Standard orientation:
 ---------------------------------------------------------------------
 Center     Atomic      Atomic             Coordinates (Angstroms)
 Number     Number       Type             X           Y           Z
 ---------------------------------------------------------------------
      1          6           0        1.844031    0.679566    0.000087
      2          6           0        1.844031   -0.679566    0.000086
      3          6           0        0.715937   -1.560113   -0.000052
      4          6           0        0.715937    1.560113   -0.000052
      5          6           0       -0.612425   -1.281114   -0.000141
      6          6           0       -0.612424    1.281115   -0.000142
      7          1           0        2.817207    1.167683    0.000168
      8          1           0        2.817207   -1.167684    0.000166
      9          1           0        0.969901   -2.620010   -0.000050
     10          1           0        0.969901    2.620010   -0.000049
     11          1           0       -1.303054   -2.123544   -0.000233
     12          1           0       -1.303055    2.123543   -0.000235
     13          8           0       -2.550830    0.000000    0.000199
     14          6           0       -1.321998   -0.000000   -0.000013
 ---------------------------------------------------------------------

 The electronic state is 1-A.
 Alpha  occ. eigenvalues --  -19.64516 -10.66069 -10.61314 -10.61314 -10.61120
 Alpha  occ. eigenvalues --  -10.61023 -10.60036 -10.60034  -1.17160  -0.98421
 Alpha  occ. eigenvalues --   -0.91890  -0.88682  -0.77658  -0.75440  -0.64202
 Alpha  occ. eigenvalues --   -0.62621  -0.60469  -0.54193  -0.52181  -0.49355
 Alpha  occ. eigenvalues --   -0.49328  -0.47760  -0.44899  -0.42359  -0.41552
 Alpha  occ. eigenvalues --   -0.35936  -0.32280  -0.28551
 Alpha virt. eigenvalues --   -0.05465  -0.02360   0.00346   0.01757   0.02744
 Alpha virt. eigenvalues --    0.04303   0.04758   0.06760   0.07326   0.08437
 Alpha virt. eigenvalues --    0.09647   0.09731   0.10259   0.10367   0.10429

 Mulliken charges:
               1
     1  C    0.730975
     2  C    0.730973
     3  C    0.460614
     4  C    0.460614
     5  C    0.730902
     6  C    0.730900
     7  H   -0.535924
     8  H   -0.535924
     9  H   -0.535260
    10  H   -0.535260
    11  H   -0.587400
    12  H   -0.587400
    13  O   -0.774611
    14  C    0.246800
 Sum of Mulliken charges =  -0.00000

 Dipole moment (field-independent basis, Debye):
    X=              4.7806    Y=             -0.0000    Z=             -0.0004  Tot=              4.7806
 Quadrupole moment (field-independent basis, Debye-Ang):
   XX=            -53.1121   YY=            -37.9970   ZZ=            -49.6577
   XY=              0.0000   XZ=              0.0021   YZ=              0.0000

 Normal termination of Gaussian 16 at Fri Nov 24 10:49:17 2023.
